HEADER
"PSFversion" "1.00"
"Log Generator" "drlLog rev. 1.0"
"Log Time Stamp" "Sat May 21 04:33:21 2016"
"simulator" "spectre"
"version" "5.10.41_USR5.053107"
"date" "4:33:21 AM, Sat May 21, 2016"
"design" "input.scs"
TYPE
"analysisInst" STRUCT(
"analysisType" STRING *
"dataFile" STRING *
"format" STRING *
"parent" STRING *
"sweepVariable" ARRAY ( * ) STRING *
"description" STRING *
)
VALUE
"tran-tran" "analysisInst" (
"tran"
"tran.tran.trn"
"SST2"
""
()
"Transient Analysis `tran': time = (0 s -> 100 ns)"
)
"finalTimeOP-info" "analysisInst" (
"info"
"finalTimeOP.info"
"PSF"
""
()
"Circuit Information"
)
"modelParameter-info" "analysisInst" (
"info"
"modelParameter.info"
"PSF"
""
()
"Circuit Information"
)
"element-info" "analysisInst" (
"info"
"element.info"
"PSF"
""
()
"Circuit Information"
)
"outputParameter-info" "analysisInst" (
"info"
"outputParameter.info"
"PSF"
""
()
"Circuit Information"
)
"designParamVals-info" "analysisInst" (
"info"
"designParamVals.info"
"PSF"
""
()
"Circuit Information"
)
"primitives-info.primitives" "analysisInst" (
"info.primitives"
"primitives.info.primitives"
"PSF"
""
()
"Circuit Information"
)
"subckts-info.subckts" "analysisInst" (
"info.subckts"
"subckts.info.subckts"
"PSF"
""
()
"Circuit Information"
)