HEADER
"PSFversion" "1.00"
"design" "(\"ShiftReg\" \"8-bit\" \"extracted\" \"\")"
"simulator" "spectre"
"temperature" "27"
"host" ""
"date" "May 21 04:33:17 2016"
"title" ""
"analysisList" "()"
END
