HEADER
"PSFversion" "1.00"
"I3v" "I3"
"I3n" "dffr"
"I1v" "I1"
"I1n" "dffr"
"I0v" "I0"
"I0n" "dffr"
