HEADER
"PSFversion" "1.00"
"net58v" "net58"
"net42v" "net42"
"net96v" "net96"
"net106v" "net106"
"net62v" "net62"
"net70v" "net70"
"net99v" "net99"
"net50v" "net50"
"net91v" "net91"
"net66v" "net66"
"net30v" "net30"
"net22v" "net22"
"net119v" "net119"
"net127v" "net127"
"net111v" "net111"
"net34v" "net34"
"net0197v" "net0197"
"Rv" "R"
"Dv" "D"
"Qv" "Q"
"QBv" "QB"
"CLKv" "CLK"
