HEADER
"PSFversion" "1.00"
"design" "(\"Counter\" \"counter\" \"schematic\" \"\")"
"simulator" "spectre"
"temperature" "27"
"host" ""
"date" "May 14 04:41:58 2016"
"title" ""
"analysisList" "()"
END
