HEADER
"PSFversion" "1.00"
"N19v" "N19"
"N19n" "NCSU_Analog_Parts_nmos4_spectre"
"N17v" "N17"
"N17n" "NCSU_Analog_Parts_nmos4_spectre"
"N18v" "N18"
"N18n" "NCSU_Analog_Parts_nmos4_spectre"
"N20v" "N20"
"N20n" "NCSU_Analog_Parts_nmos4_spectre"
"N16v" "N16"
"N16n" "NCSU_Analog_Parts_nmos4_spectre"
"N15v" "N15"
"N15n" "NCSU_Analog_Parts_nmos4_spectre"
"N14v" "N14"
"N14n" "NCSU_Analog_Parts_nmos4_spectre"
"N13v" "N13"
"N13n" "NCSU_Analog_Parts_nmos4_spectre"
"N12v" "N12"
"N12n" "NCSU_Analog_Parts_nmos4_spectre"
"N10v" "N10"
"N10n" "NCSU_Analog_Parts_nmos4_spectre"
"N8v" "N8"
"N8n" "NCSU_Analog_Parts_nmos4_spectre"
"N7v" "N7"
"N7n" "NCSU_Analog_Parts_nmos4_spectre"
"N6v" "N6"
"N6n" "NCSU_Analog_Parts_nmos4_spectre"
"N5v" "N5"
"N5n" "NCSU_Analog_Parts_nmos4_spectre"
"N3v" "N3"
"N3n" "NCSU_Analog_Parts_nmos4_spectre"
"N1v" "N1"
"N1n" "NCSU_Analog_Parts_nmos4_spectre"
"N0v" "N0"
"N0n" "NCSU_Analog_Parts_nmos4_spectre"
"P22v" "P22"
"P22n" "NCSU_Analog_Parts_pmos4_spectre"
"P19v" "P19"
"P19n" "NCSU_Analog_Parts_pmos4_spectre"
"P17v" "P17"
"P17n" "NCSU_Analog_Parts_pmos4_spectre"
"P20v" "P20"
"P20n" "NCSU_Analog_Parts_pmos4_spectre"
"P21v" "P21"
"P21n" "NCSU_Analog_Parts_pmos4_spectre"
"P18v" "P18"
"P18n" "NCSU_Analog_Parts_pmos4_spectre"
"P16v" "P16"
"P16n" "NCSU_Analog_Parts_pmos4_spectre"
"P15v" "P15"
"P15n" "NCSU_Analog_Parts_pmos4_spectre"
"P14v" "P14"
"P14n" "NCSU_Analog_Parts_pmos4_spectre"
"P11v" "P11"
"P11n" "NCSU_Analog_Parts_pmos4_spectre"
"P9v" "P9"
"P9n" "NCSU_Analog_Parts_pmos4_spectre"
"P8v" "P8"
"P8n" "NCSU_Analog_Parts_pmos4_spectre"
"P6v" "P6"
"P6n" "NCSU_Analog_Parts_pmos4_spectre"
"P4v" "P4"
"P4n" "NCSU_Analog_Parts_pmos4_spectre"
"P2v" "P2"
"P2n" "NCSU_Analog_Parts_pmos4_spectre"
"P1v" "P1"
"P1n" "NCSU_Analog_Parts_pmos4_spectre"
"P0v" "P0"
"P0n" "NCSU_Analog_Parts_pmos4_spectre"
"CLKv" ":1"
"Dv" ":2"
"Qv" ":3"
"QBv" ":4"
"Rv" ":5"
