HEADER
"PSFversion" "1.00"
"RESETv" "RESET"
"D0v" "D0"
"D1v" "D1"
"D2v" "D2"
"D3v" "D3"
"D4v" "D4"
"D5v" "D5"
"D6v" "D6"
"D7v" "D7"
"X0v" "X0"
"X1v" "X1"
"X2v" "X2"
"X3v" "X3"
"X4v" "X4"
"X5v" "X5"
"X6v" "X6"
"CLKv" "CLK"
"X7v" "X7"
"S0v" "S0"
"S1v" "S1"
"S2v" "S2"
"23v" "_23"
"24v" "_24"
"25v" "_25"
"26v" "_26"
"27v" "_27"
"28v" "_28"
"29v" "_29"
"30v" "_30"
"31v" "_31"
"32v" "_32"
"33v" "_33"
"34v" "_34"
"35v" "_35"
"36v" "_36"
"37v" "_37"
"38v" "_38"
"39v" "_39"
"40v" "_40"
"41v" "_41"
"42v" "_42"
"43v" "_43"
"44v" "_44"
"45v" "_45"
"46v" "_46"
"47v" "_47"
"48v" "_48"
"49v" "_49"
"50v" "_50"
"51v" "_51"
"52v" "_52"
"53v" "_53"
"54v" "_54"
"55v" "_55"
"56v" "_56"
"57v" "_57"
"58v" "_58"
"59v" "_59"
"60v" "_60"
"61v" "_61"
"62v" "_62"
"63v" "_63"
"64v" "_64"
"65v" "_65"
"66v" "_66"
"67v" "_67"
"68v" "_68"
"69v" "_69"
"70v" "_70"
"71v" "_71"
"72v" "_72"
"73v" "_73"
"74v" "_74"
"75v" "_75"
"76v" "_76"
"77v" "_77"
"78v" "_78"
"79v" "_79"
"80v" "_80"
"81v" "_81"
"82v" "_82"
"83v" "_83"
"84v" "_84"
"85v" "_85"
"86v" "_86"
"87v" "_87"
"88v" "_88"
"89v" "_89"
"90v" "_90"
"91v" "_91"
"92v" "_92"
"93v" "_93"
"94v" "_94"
"95v" "_95"
"96v" "_96"
"97v" "_97"
"98v" "_98"
"99v" "_99"
"100v" "_100"
"101v" "_101"
"102v" "_102"
"103v" "_103"
"104v" "_104"
"105v" "_105"
"106v" "_106"
"107v" "_107"
"108v" "_108"
"109v" "_109"
"110v" "_110"
"111v" "_111"
"112v" "_112"
"113v" "_113"
"114v" "_114"
"115v" "_115"
"116v" "_116"
"117v" "_117"
"118v" "_118"
"119v" "_119"
"120v" "_120"
"121v" "_121"
"122v" "_122"
"123v" "_123"
"124v" "_124"
"125v" "_125"
"126v" "_126"
"127v" "_127"
"128v" "_128"
"129v" "_129"
"130v" "_130"
"131v" "_131"
"132v" "_132"
"133v" "_133"
"134v" "_134"
"135v" "_135"
"136v" "_136"
"137v" "_137"
"138v" "_138"
"139v" "_139"
"140v" "_140"
"141v" "_141"
"142v" "_142"
"143v" "_143"
"144v" "_144"
"145v" "_145"
"146v" "_146"
"147v" "_147"
"148v" "_148"
"149v" "_149"
"150v" "_150"
"151v" "_151"
"152v" "_152"
"153v" "_153"
"154v" "_154"
"155v" "_155"
"156v" "_156"
"157v" "_157"
"158v" "_158"
"159v" "_159"
"160v" "_160"
"161v" "_161"
"162v" "_162"
"163v" "_163"
"164v" "_164"
"165v" "_165"
"166v" "_166"
"167v" "_167"
"168v" "_168"
"169v" "_169"
"170v" "_170"
"171v" "_171"
"172v" "_172"
"173v" "_173"
"174v" "_174"
"175v" "_175"
"176v" "_176"
"177v" "_177"
"178v" "_178"
"179v" "_179"
"180v" "_180"
"181v" "_181"
"182v" "_182"
"183v" "_183"
"184v" "_184"
"185v" "_185"
"186v" "_186"
"187v" "_187"
"188v" "_188"
"189v" "_189"
"190v" "_190"
"191v" "_191"
"192v" "_192"
"193v" "_193"
"194v" "_194"
"195v" "_195"
"196v" "_196"
"197v" "_197"
"198v" "_198"
"199v" "_199"
"200v" "_200"
"201v" "_201"
"202v" "_202"
"203v" "_203"
"204v" "_204"
"205v" "_205"
"206v" "_206"
"207v" "_207"
"208v" "_208"
"209v" "_209"
"210v" "_210"
"211v" "_211"
"212v" "_212"
"213v" "_213"
"214v" "_214"
"215v" "_215"
"216v" "_216"
"217v" "_217"
"218v" "_218"
"219v" "_219"
