HEADER
"PSFversion" "1.00"
"\\+1966v" "+1966"
"\\+1966n" "NCSU_Analog_Parts_pcapacitor_spectre"
"\\+1960v" "+1960"
"\\+1960n" "NCSU_Analog_Parts_pcapacitor_spectre"
"\\+1954v" "+1954"
"\\+1954n" "NCSU_Analog_Parts_pcapacitor_spectre"
"\\+1953v" "+1953"
"\\+1953n" "NCSU_Analog_Parts_pcapacitor_spectre"
"\\+1945v" "+1945"
"\\+1945n" "NCSU_Analog_Parts_pcapacitor_spectre"
"\\+1941v" "+1941"
"\\+1941n" "NCSU_Analog_Parts_pcapacitor_spectre"
"\\+1936v" "+1936"
"\\+1936n" "NCSU_Analog_Parts_pcapacitor_spectre"
"\\+1932v" "+1932"
"\\+1932n" "NCSU_Analog_Parts_pcapacitor_spectre"
"\\+1925v" "+1925"
"\\+1925n" "NCSU_Analog_Parts_pcapacitor_spectre"
"\\+1924v" "+1924"
"\\+1924n" "NCSU_Analog_Parts_pcapacitor_spectre"
"\\+1921v" "+1921"
"\\+1921n" "NCSU_Analog_Parts_pcapacitor_spectre"
"\\+1918v" "+1918"
"\\+1918n" "NCSU_Analog_Parts_pcapacitor_spectre"
"\\+1916v" "+1916"
"\\+1916n" "NCSU_Analog_Parts_pcapacitor_spectre"
"\\+1913v" "+1913"
"\\+1913n" "NCSU_Analog_Parts_pcapacitor_spectre"
"\\+1909v" "+1909"
"\\+1909n" "NCSU_Analog_Parts_pcapacitor_spectre"
"\\+1900v" "+1900"
"\\+1900n" "NCSU_Analog_Parts_pcapacitor_spectre"
"\\+1897v" "+1897"
"\\+1897n" "NCSU_Analog_Parts_pcapacitor_spectre"
"\\+1894v" "+1894"
"\\+1894n" "NCSU_Analog_Parts_pcapacitor_spectre"
"\\+1893v" "+1893"
"\\+1893n" "NCSU_Analog_Parts_pcapacitor_spectre"
"\\+1892v" "+1892"
"\\+1892n" "NCSU_Analog_Parts_pcapacitor_spectre"
"\\+1887v" "+1887"
"\\+1887n" "NCSU_Analog_Parts_pcapacitor_spectre"
"\\+1881v" "+1881"
"\\+1881n" "NCSU_Analog_Parts_pcapacitor_spectre"
"\\+1877v" "+1877"
"\\+1877n" "NCSU_Analog_Parts_pcapacitor_spectre"
"\\+1875v" "+1875"
"\\+1875n" "NCSU_Analog_Parts_pcapacitor_spectre"
"\\+1873v" "+1873"
"\\+1873n" "NCSU_Analog_Parts_pcapacitor_spectre"
"\\+1872v" "+1872"
"\\+1872n" "NCSU_Analog_Parts_pcapacitor_spectre"
"\\+1870v" "+1870"
"\\+1870n" "NCSU_Analog_Parts_pcapacitor_spectre"
"\\+1869v" "+1869"
"\\+1869n" "NCSU_Analog_Parts_pcapacitor_spectre"
"\\+1868v" "+1868"
"\\+1868n" "NCSU_Analog_Parts_pcapacitor_spectre"
"\\+1867v" "+1867"
"\\+1867n" "NCSU_Analog_Parts_pcapacitor_spectre"
"\\+1860v" "+1860"
"\\+1860n" "NCSU_Analog_Parts_pcapacitor_spectre"
"\\+1813v" "+1813"
"\\+1813n" "NCSU_Analog_Parts_pcapacitor_spectre"
"\\+1761v" "+1761"
"\\+1761n" "NCSU_Analog_Parts_pcapacitor_spectre"
"\\+1754v" "+1754"
"\\+1754n" "NCSU_Analog_Parts_pcapacitor_spectre"
"\\+1750v" "+1750"
"\\+1750n" "NCSU_Analog_Parts_pcapacitor_spectre"
"\\+1744v" "+1744"
"\\+1744n" "NCSU_Analog_Parts_pcapacitor_spectre"
"\\+1743v" "+1743"
"\\+1743n" "NCSU_Analog_Parts_pcapacitor_spectre"
"\\+1742v" "+1742"
"\\+1742n" "NCSU_Analog_Parts_pcapacitor_spectre"
"\\+1741v" "+1741"
"\\+1741n" "NCSU_Analog_Parts_pcapacitor_spectre"
"\\+1740v" "+1740"
"\\+1740n" "NCSU_Analog_Parts_pcapacitor_spectre"
"\\+1737v" "+1737"
"\\+1737n" "NCSU_Analog_Parts_pcapacitor_spectre"
"\\+1731v" "+1731"
"\\+1731n" "NCSU_Analog_Parts_pcapacitor_spectre"
"\\+1730v" "+1730"
"\\+1730n" "NCSU_Analog_Parts_pcapacitor_spectre"
"\\+1729v" "+1729"
"\\+1729n" "NCSU_Analog_Parts_pcapacitor_spectre"
"\\+1728v" "+1728"
"\\+1728n" "NCSU_Analog_Parts_pcapacitor_spectre"
"\\+1719v" "+1719"
"\\+1719n" "NCSU_Analog_Parts_pcapacitor_spectre"
"\\+1718v" "+1718"
"\\+1718n" "NCSU_Analog_Parts_pcapacitor_spectre"
"\\+1717v" "+1717"
"\\+1717n" "NCSU_Analog_Parts_pcapacitor_spectre"
"\\+1716v" "+1716"
"\\+1716n" "NCSU_Analog_Parts_pcapacitor_spectre"
"\\+1715v" "+1715"
"\\+1715n" "NCSU_Analog_Parts_pcapacitor_spectre"
"\\+1706v" "+1706"
"\\+1706n" "NCSU_Analog_Parts_pcapacitor_spectre"
"\\+1705v" "+1705"
"\\+1705n" "NCSU_Analog_Parts_pcapacitor_spectre"
"\\+1704v" "+1704"
"\\+1704n" "NCSU_Analog_Parts_pcapacitor_spectre"
"\\+1703v" "+1703"
"\\+1703n" "NCSU_Analog_Parts_pcapacitor_spectre"
"\\+1702v" "+1702"
"\\+1702n" "NCSU_Analog_Parts_pcapacitor_spectre"
"\\+1699v" "+1699"
"\\+1699n" "NCSU_Analog_Parts_pcapacitor_spectre"
"\\+1693v" "+1693"
"\\+1693n" "NCSU_Analog_Parts_pcapacitor_spectre"
"\\+1692v" "+1692"
"\\+1692n" "NCSU_Analog_Parts_pcapacitor_spectre"
"\\+1691v" "+1691"
"\\+1691n" "NCSU_Analog_Parts_pcapacitor_spectre"
"\\+1690v" "+1690"
"\\+1690n" "NCSU_Analog_Parts_pcapacitor_spectre"
"\\+1689v" "+1689"
"\\+1689n" "NCSU_Analog_Parts_pcapacitor_spectre"
"\\+1680v" "+1680"
"\\+1680n" "NCSU_Analog_Parts_pcapacitor_spectre"
"\\+1679v" "+1679"
"\\+1679n" "NCSU_Analog_Parts_pcapacitor_spectre"
"\\+1678v" "+1678"
"\\+1678n" "NCSU_Analog_Parts_pcapacitor_spectre"
"\\+1677v" "+1677"
"\\+1677n" "NCSU_Analog_Parts_pcapacitor_spectre"
"\\+1676v" "+1676"
"\\+1676n" "NCSU_Analog_Parts_pcapacitor_spectre"
"\\+1667v" "+1667"
"\\+1667n" "NCSU_Analog_Parts_pcapacitor_spectre"
"\\+1666v" "+1666"
"\\+1666n" "NCSU_Analog_Parts_pcapacitor_spectre"
"\\+1665v" "+1665"
"\\+1665n" "NCSU_Analog_Parts_pcapacitor_spectre"
"\\+1664v" "+1664"
"\\+1664n" "NCSU_Analog_Parts_pcapacitor_spectre"
"\\+1663v" "+1663"
"\\+1663n" "NCSU_Analog_Parts_pcapacitor_spectre"
"\\+1662v" "+1662"
"\\+1662n" "NCSU_Analog_Parts_pcapacitor_spectre"
"\\+1653v" "+1653"
"\\+1653n" "NCSU_Analog_Parts_pcapacitor_spectre"
"\\+1652v" "+1652"
"\\+1652n" "NCSU_Analog_Parts_pcapacitor_spectre"
"\\+1651v" "+1651"
"\\+1651n" "NCSU_Analog_Parts_pcapacitor_spectre"
"\\+1650v" "+1650"
"\\+1650n" "NCSU_Analog_Parts_pcapacitor_spectre"
"\\+1649v" "+1649"
"\\+1649n" "NCSU_Analog_Parts_pcapacitor_spectre"
"\\+1648v" "+1648"
"\\+1648n" "NCSU_Analog_Parts_pcapacitor_spectre"
"\\+1647v" "+1647"
"\\+1647n" "NCSU_Analog_Parts_pcapacitor_spectre"
"\\+1641v" "+1641"
"\\+1641n" "NCSU_Analog_Parts_pcapacitor_spectre"
"\\+1638v" "+1638"
"\\+1638n" "NCSU_Analog_Parts_pcapacitor_spectre"
"\\+1637v" "+1637"
"\\+1637n" "NCSU_Analog_Parts_pcapacitor_spectre"
"\\+1635v" "+1635"
"\\+1635n" "NCSU_Analog_Parts_pcapacitor_spectre"
"\\+1631v" "+1631"
"\\+1631n" "NCSU_Analog_Parts_pcapacitor_spectre"
"\\+1624v" "+1624"
"\\+1624n" "NCSU_Analog_Parts_pcapacitor_spectre"
"\\+1622v" "+1622"
"\\+1622n" "NCSU_Analog_Parts_pcapacitor_spectre"
"\\+1620v" "+1620"
"\\+1620n" "NCSU_Analog_Parts_pcapacitor_spectre"
"\\+1617v" "+1617"
"\\+1617n" "NCSU_Analog_Parts_pcapacitor_spectre"
"\\+1612v" "+1612"
"\\+1612n" "NCSU_Analog_Parts_pcapacitor_spectre"
"\\+1607v" "+1607"
"\\+1607n" "NCSU_Analog_Parts_pcapacitor_spectre"
"\\+1605v" "+1605"
"\\+1605n" "NCSU_Analog_Parts_pcapacitor_spectre"
"\\+1604v" "+1604"
"\\+1604n" "NCSU_Analog_Parts_pcapacitor_spectre"
"\\+1602v" "+1602"
"\\+1602n" "NCSU_Analog_Parts_pcapacitor_spectre"
"\\+1601v" "+1601"
"\\+1601n" "NCSU_Analog_Parts_pcapacitor_spectre"
"\\+1596v" "+1596"
"\\+1596n" "NCSU_Analog_Parts_pcapacitor_spectre"
"\\+1595v" "+1595"
"\\+1595n" "NCSU_Analog_Parts_pcapacitor_spectre"
"\\+1592v" "+1592"
"\\+1592n" "NCSU_Analog_Parts_pcapacitor_spectre"
"\\+1589v" "+1589"
"\\+1589n" "NCSU_Analog_Parts_pcapacitor_spectre"
"\\+1587v" "+1587"
"\\+1587n" "NCSU_Analog_Parts_pcapacitor_spectre"
"\\+1586v" "+1586"
"\\+1586n" "NCSU_Analog_Parts_pcapacitor_spectre"
"\\+1581v" "+1581"
"\\+1581n" "NCSU_Analog_Parts_pcapacitor_spectre"
"\\+1580v" "+1580"
"\\+1580n" "NCSU_Analog_Parts_pcapacitor_spectre"
"\\+1578v" "+1578"
"\\+1578n" "NCSU_Analog_Parts_pcapacitor_spectre"
"\\+1575v" "+1575"
"\\+1575n" "NCSU_Analog_Parts_pcapacitor_spectre"
"\\+1574v" "+1574"
"\\+1574n" "NCSU_Analog_Parts_pcapacitor_spectre"
"\\+1566v" "+1566"
"\\+1566n" "NCSU_Analog_Parts_pcapacitor_spectre"
"\\+1562v" "+1562"
"\\+1562n" "NCSU_Analog_Parts_pcapacitor_spectre"
"\\+1558v" "+1558"
"\\+1558n" "NCSU_Analog_Parts_pcapacitor_spectre"
"\\+1551v" "+1551"
"\\+1551n" "NCSU_Analog_Parts_pcapacitor_spectre"
"\\+1547v" "+1547"
"\\+1547n" "NCSU_Analog_Parts_pcapacitor_spectre"
"\\+1546v" "+1546"
"\\+1546n" "NCSU_Analog_Parts_pcapacitor_spectre"
"\\+1540v" "+1540"
"\\+1540n" "NCSU_Analog_Parts_pcapacitor_spectre"
"\\+1534v" "+1534"
"\\+1534n" "NCSU_Analog_Parts_pcapacitor_spectre"
"\\+1532v" "+1532"
"\\+1532n" "NCSU_Analog_Parts_pcapacitor_spectre"
"\\+1528v" "+1528"
"\\+1528n" "NCSU_Analog_Parts_pcapacitor_spectre"
"\\+1527v" "+1527"
"\\+1527n" "NCSU_Analog_Parts_pcapacitor_spectre"
"\\+1525v" "+1525"
"\\+1525n" "NCSU_Analog_Parts_pcapacitor_spectre"
"\\+1524v" "+1524"
"\\+1524n" "NCSU_Analog_Parts_pcapacitor_spectre"
"\\+1523v" "+1523"
"\\+1523n" "NCSU_Analog_Parts_pcapacitor_spectre"
"\\+1462v" "+1462"
"\\+1462n" "NCSU_Analog_Parts_pcapacitor_spectre"
"\\+1451v" "+1451"
"\\+1451n" "NCSU_Analog_Parts_pcapacitor_spectre"
"\\+1448v" "+1448"
"\\+1448n" "NCSU_Analog_Parts_pcapacitor_spectre"
"\\+1445v" "+1445"
"\\+1445n" "NCSU_Analog_Parts_pcapacitor_spectre"
"\\+1443v" "+1443"
"\\+1443n" "NCSU_Analog_Parts_pcapacitor_spectre"
"\\+1442v" "+1442"
"\\+1442n" "NCSU_Analog_Parts_pcapacitor_spectre"
"\\+1441v" "+1441"
"\\+1441n" "NCSU_Analog_Parts_pcapacitor_spectre"
"\\+1319v" "+1319"
"\\+1319n" "NCSU_Analog_Parts_pcapacitor_spectre"
"\\+1317v" "+1317"
"\\+1317n" "NCSU_Analog_Parts_pcapacitor_spectre"
"\\+1313v" "+1313"
"\\+1313n" "NCSU_Analog_Parts_pcapacitor_spectre"
"\\+1310v" "+1310"
"\\+1310n" "NCSU_Analog_Parts_pcapacitor_spectre"
"\\+1306v" "+1306"
"\\+1306n" "NCSU_Analog_Parts_pcapacitor_spectre"
"\\+1305v" "+1305"
"\\+1305n" "NCSU_Analog_Parts_pcapacitor_spectre"
"\\+1304v" "+1304"
"\\+1304n" "NCSU_Analog_Parts_pcapacitor_spectre"
"\\+1300v" "+1300"
"\\+1300n" "NCSU_Analog_Parts_pcapacitor_spectre"
"\\+1299v" "+1299"
"\\+1299n" "NCSU_Analog_Parts_pcapacitor_spectre"
"\\+1296v" "+1296"
"\\+1296n" "NCSU_Analog_Parts_pcapacitor_spectre"
"\\+1295v" "+1295"
"\\+1295n" "NCSU_Analog_Parts_pcapacitor_spectre"
"\\+1292v" "+1292"
"\\+1292n" "NCSU_Analog_Parts_pcapacitor_spectre"
"\\+1291v" "+1291"
"\\+1291n" "NCSU_Analog_Parts_pcapacitor_spectre"
"\\+1288v" "+1288"
"\\+1288n" "NCSU_Analog_Parts_pcapacitor_spectre"
"\\+1287v" "+1287"
"\\+1287n" "NCSU_Analog_Parts_pcapacitor_spectre"
"\\+1284v" "+1284"
"\\+1284n" "NCSU_Analog_Parts_pcapacitor_spectre"
"\\+1283v" "+1283"
"\\+1283n" "NCSU_Analog_Parts_pcapacitor_spectre"
"\\+1280v" "+1280"
"\\+1280n" "NCSU_Analog_Parts_pcapacitor_spectre"
"\\+1279v" "+1279"
"\\+1279n" "NCSU_Analog_Parts_pcapacitor_spectre"
"\\+1276v" "+1276"
"\\+1276n" "NCSU_Analog_Parts_pcapacitor_spectre"
"\\+1275v" "+1275"
"\\+1275n" "NCSU_Analog_Parts_pcapacitor_spectre"
"\\+1268v" "+1268"
"\\+1268n" "NCSU_Analog_Parts_pcapacitor_spectre"
"\\+1267v" "+1267"
"\\+1267n" "NCSU_Analog_Parts_pcapacitor_spectre"
"\\+1266v" "+1266"
"\\+1266n" "NCSU_Analog_Parts_pcapacitor_spectre"
"\\+1263v" "+1263"
"\\+1263n" "NCSU_Analog_Parts_pcapacitor_spectre"
"\\+1262v" "+1262"
"\\+1262n" "NCSU_Analog_Parts_pcapacitor_spectre"
"\\+1261v" "+1261"
"\\+1261n" "NCSU_Analog_Parts_pcapacitor_spectre"
"\\+1258v" "+1258"
"\\+1258n" "NCSU_Analog_Parts_pcapacitor_spectre"
"\\+1257v" "+1257"
"\\+1257n" "NCSU_Analog_Parts_pcapacitor_spectre"
"\\+1256v" "+1256"
"\\+1256n" "NCSU_Analog_Parts_pcapacitor_spectre"
"\\+1253v" "+1253"
"\\+1253n" "NCSU_Analog_Parts_pcapacitor_spectre"
"\\+1251v" "+1251"
"\\+1251n" "NCSU_Analog_Parts_pcapacitor_spectre"
"\\+1248v" "+1248"
"\\+1248n" "NCSU_Analog_Parts_pcapacitor_spectre"
"\\+1246v" "+1246"
"\\+1246n" "NCSU_Analog_Parts_pcapacitor_spectre"
"\\+1243v" "+1243"
"\\+1243n" "NCSU_Analog_Parts_pcapacitor_spectre"
"\\+1242v" "+1242"
"\\+1242n" "NCSU_Analog_Parts_pcapacitor_spectre"
"\\+1241v" "+1241"
"\\+1241n" "NCSU_Analog_Parts_pcapacitor_spectre"
"\\+1238v" "+1238"
"\\+1238n" "NCSU_Analog_Parts_pcapacitor_spectre"
"\\+1236v" "+1236"
"\\+1236n" "NCSU_Analog_Parts_pcapacitor_spectre"
"\\+1233v" "+1233"
"\\+1233n" "NCSU_Analog_Parts_pcapacitor_spectre"
"\\+1232v" "+1232"
"\\+1232n" "NCSU_Analog_Parts_pcapacitor_spectre"
"\\+1231v" "+1231"
"\\+1231n" "NCSU_Analog_Parts_pcapacitor_spectre"
"\\+1230v" "+1230"
"\\+1230n" "NCSU_Analog_Parts_pcapacitor_spectre"
"\\+1228v" "+1228"
"\\+1228n" "NCSU_Analog_Parts_pcapacitor_spectre"
"\\+1227v" "+1227"
"\\+1227n" "NCSU_Analog_Parts_pcapacitor_spectre"
"\\+1226v" "+1226"
"\\+1226n" "NCSU_Analog_Parts_pcapacitor_spectre"
"\\+1225v" "+1225"
"\\+1225n" "NCSU_Analog_Parts_pcapacitor_spectre"
"\\+1223v" "+1223"
"\\+1223n" "NCSU_Analog_Parts_pcapacitor_spectre"
"\\+1222v" "+1222"
"\\+1222n" "NCSU_Analog_Parts_pcapacitor_spectre"
"\\+1221v" "+1221"
"\\+1221n" "NCSU_Analog_Parts_pcapacitor_spectre"
"\\+1220v" "+1220"
"\\+1220n" "NCSU_Analog_Parts_pcapacitor_spectre"
"\\+1219v" "+1219"
"\\+1219n" "NCSU_Analog_Parts_pcapacitor_spectre"
"\\+1218v" "+1218"
"\\+1218n" "NCSU_Analog_Parts_pcapacitor_spectre"
"\\+1217v" "+1217"
"\\+1217n" "NCSU_Analog_Parts_pcapacitor_spectre"
"\\+1216v" "+1216"
"\\+1216n" "NCSU_Analog_Parts_pcapacitor_spectre"
"\\+1215v" "+1215"
"\\+1215n" "NCSU_Analog_Parts_pcapacitor_spectre"
"\\+1214v" "+1214"
"\\+1214n" "NCSU_Analog_Parts_pcapacitor_spectre"
"\\+1213v" "+1213"
"\\+1213n" "NCSU_Analog_Parts_pcapacitor_spectre"
"\\+1212v" "+1212"
"\\+1212n" "NCSU_Analog_Parts_pcapacitor_spectre"
"\\+1211v" "+1211"
"\\+1211n" "NCSU_Analog_Parts_pcapacitor_spectre"
"\\+1210v" "+1210"
"\\+1210n" "NCSU_Analog_Parts_pcapacitor_spectre"
"\\+1199v" "+1199"
"\\+1199n" "NCSU_Analog_Parts_pcapacitor_spectre"
"\\+1197v" "+1197"
"\\+1197n" "NCSU_Analog_Parts_pcapacitor_spectre"
"\\+1186v" "+1186"
"\\+1186n" "NCSU_Analog_Parts_pcapacitor_spectre"
"\\+1185v" "+1185"
"\\+1185n" "NCSU_Analog_Parts_pcapacitor_spectre"
"\\+1183v" "+1183"
"\\+1183n" "NCSU_Analog_Parts_pcapacitor_spectre"
"\\+1182v" "+1182"
"\\+1182n" "NCSU_Analog_Parts_pcapacitor_spectre"
"\\+1181v" "+1181"
"\\+1181n" "NCSU_Analog_Parts_pcapacitor_spectre"
"\\+1168v" "+1168"
"\\+1168n" "NCSU_Analog_Parts_pcapacitor_spectre"
"\\+1167v" "+1167"
"\\+1167n" "NCSU_Analog_Parts_pcapacitor_spectre"
"\\+1166v" "+1166"
"\\+1166n" "NCSU_Analog_Parts_pcapacitor_spectre"
"\\+1140v" "+1140"
"\\+1140n" "NCSU_Analog_Parts_pcapacitor_spectre"
"\\+1138v" "+1138"
"\\+1138n" "NCSU_Analog_Parts_pcapacitor_spectre"
"\\+1137v" "+1137"
"\\+1137n" "NCSU_Analog_Parts_pcapacitor_spectre"
"\\+1136v" "+1136"
"\\+1136n" "NCSU_Analog_Parts_pcapacitor_spectre"
"\\+1135v" "+1135"
"\\+1135n" "NCSU_Analog_Parts_pcapacitor_spectre"
"\\+1134v" "+1134"
"\\+1134n" "NCSU_Analog_Parts_pcapacitor_spectre"
"\\+1133v" "+1133"
"\\+1133n" "NCSU_Analog_Parts_pcapacitor_spectre"
"\\+1132v" "+1132"
"\\+1132n" "NCSU_Analog_Parts_pcapacitor_spectre"
"\\+1121v" "+1121"
"\\+1121n" "NCSU_Analog_Parts_pcapacitor_spectre"
"\\+1118v" "+1118"
"\\+1118n" "NCSU_Analog_Parts_pcapacitor_spectre"
"\\+1107v" "+1107"
"\\+1107n" "NCSU_Analog_Parts_pcapacitor_spectre"
"\\+1106v" "+1106"
"\\+1106n" "NCSU_Analog_Parts_pcapacitor_spectre"
"\\+1104v" "+1104"
"\\+1104n" "NCSU_Analog_Parts_pcapacitor_spectre"
"\\+1103v" "+1103"
"\\+1103n" "NCSU_Analog_Parts_pcapacitor_spectre"
"\\+1102v" "+1102"
"\\+1102n" "NCSU_Analog_Parts_pcapacitor_spectre"
"\\+1089v" "+1089"
"\\+1089n" "NCSU_Analog_Parts_pcapacitor_spectre"
"\\+1087v" "+1087"
"\\+1087n" "NCSU_Analog_Parts_pcapacitor_spectre"
"\\+1086v" "+1086"
"\\+1086n" "NCSU_Analog_Parts_pcapacitor_spectre"
"\\+1060v" "+1060"
"\\+1060n" "NCSU_Analog_Parts_pcapacitor_spectre"
"\\+1058v" "+1058"
"\\+1058n" "NCSU_Analog_Parts_pcapacitor_spectre"
"\\+1057v" "+1057"
"\\+1057n" "NCSU_Analog_Parts_pcapacitor_spectre"
"\\+1056v" "+1056"
"\\+1056n" "NCSU_Analog_Parts_pcapacitor_spectre"
"\\+1055v" "+1055"
"\\+1055n" "NCSU_Analog_Parts_pcapacitor_spectre"
"\\+1054v" "+1054"
"\\+1054n" "NCSU_Analog_Parts_pcapacitor_spectre"
"\\+1053v" "+1053"
"\\+1053n" "NCSU_Analog_Parts_pcapacitor_spectre"
"\\+1052v" "+1052"
"\\+1052n" "NCSU_Analog_Parts_pcapacitor_spectre"
"\\+1041v" "+1041"
"\\+1041n" "NCSU_Analog_Parts_pcapacitor_spectre"
"\\+1038v" "+1038"
"\\+1038n" "NCSU_Analog_Parts_pcapacitor_spectre"
"\\+1030v" "+1030"
"\\+1030n" "NCSU_Analog_Parts_pcapacitor_spectre"
"\\+1027v" "+1027"
"\\+1027n" "NCSU_Analog_Parts_pcapacitor_spectre"
"\\+1026v" "+1026"
"\\+1026n" "NCSU_Analog_Parts_pcapacitor_spectre"
"\\+960v" "+960"
"\\+960n" "NCSU_Analog_Parts_pcapacitor_spectre"
"\\+948v" "+948"
"\\+948n" "NCSU_Analog_Parts_pcapacitor_spectre"
"\\+946v" "+946"
"\\+946n" "NCSU_Analog_Parts_pcapacitor_spectre"
"\\+945v" "+945"
"\\+945n" "NCSU_Analog_Parts_pcapacitor_spectre"
"\\+944v" "+944"
"\\+944n" "NCSU_Analog_Parts_pcapacitor_spectre"
"\\+943v" "+943"
"\\+943n" "NCSU_Analog_Parts_pcapacitor_spectre"
"\\+942v" "+942"
"\\+942n" "NCSU_Analog_Parts_pcapacitor_spectre"
"\\+929v" "+929"
"\\+929n" "NCSU_Analog_Parts_pcapacitor_spectre"
"\\+927v" "+927"
"\\+927n" "NCSU_Analog_Parts_pcapacitor_spectre"
"\\+926v" "+926"
"\\+926n" "NCSU_Analog_Parts_pcapacitor_spectre"
"\\+899v" "+899"
"\\+899n" "NCSU_Analog_Parts_pcapacitor_spectre"
"\\+857v" "+857"
"\\+857n" "NCSU_Analog_Parts_pcapacitor_spectre"
"\\+855v" "+855"
"\\+855n" "NCSU_Analog_Parts_pcapacitor_spectre"
"\\+852v" "+852"
"\\+852n" "NCSU_Analog_Parts_pcapacitor_spectre"
"\\+850v" "+850"
"\\+850n" "NCSU_Analog_Parts_pcapacitor_spectre"
"\\+849v" "+849"
"\\+849n" "NCSU_Analog_Parts_pcapacitor_spectre"
"\\+847v" "+847"
"\\+847n" "NCSU_Analog_Parts_pcapacitor_spectre"
"\\+846v" "+846"
"\\+846n" "NCSU_Analog_Parts_pcapacitor_spectre"
"\\+844v" "+844"
"\\+844n" "NCSU_Analog_Parts_pcapacitor_spectre"
"\\+843v" "+843"
"\\+843n" "NCSU_Analog_Parts_pcapacitor_spectre"
"\\+842v" "+842"
"\\+842n" "NCSU_Analog_Parts_pcapacitor_spectre"
"\\+841v" "+841"
"\\+841n" "NCSU_Analog_Parts_pcapacitor_spectre"
"\\+840v" "+840"
"\\+840n" "NCSU_Analog_Parts_pcapacitor_spectre"
"\\+839v" "+839"
"\\+839n" "NCSU_Analog_Parts_pcapacitor_spectre"
"\\+838v" "+838"
"\\+838n" "NCSU_Analog_Parts_pcapacitor_spectre"
"\\+835v" "+835"
"\\+835n" "NCSU_Analog_Parts_pcapacitor_spectre"
"\\+834v" "+834"
"\\+834n" "NCSU_Analog_Parts_pcapacitor_spectre"
"\\+832v" "+832"
"\\+832n" "NCSU_Analog_Parts_pcapacitor_spectre"
"\\+784v" "+784"
"\\+784n" "NCSU_Analog_Parts_pcapacitor_spectre"
"\\+783v" "+783"
"\\+783n" "NCSU_Analog_Parts_pcapacitor_spectre"
"\\+774v" "+774"
"\\+774n" "NCSU_Analog_Parts_pcapacitor_spectre"
"\\+763v" "+763"
"\\+763n" "NCSU_Analog_Parts_pcapacitor_spectre"
"\\+748v" "+748"
"\\+748n" "NCSU_Analog_Parts_pcapacitor_spectre"
"\\+695v" "+695"
"\\+695n" "NCSU_Analog_Parts_pcapacitor_spectre"
"\\+644v" "+644"
"\\+644n" "NCSU_Analog_Parts_pcapacitor_spectre"
"\\+622v" "+622"
"\\+622n" "NCSU_Analog_Parts_pcapacitor_spectre"
"\\+621v" "+621"
"\\+621n" "NCSU_Analog_Parts_pcapacitor_spectre"
"\\+620v" "+620"
"\\+620n" "NCSU_Analog_Parts_pcapacitor_spectre"
"\\+619v" "+619"
"\\+619n" "NCSU_Analog_Parts_pcapacitor_spectre"
"\\+618v" "+618"
"\\+618n" "NCSU_Analog_Parts_pcapacitor_spectre"
"\\+594v" "+594"
"\\+594n" "NCSU_Analog_Parts_pcapacitor_spectre"
"\\+593v" "+593"
"\\+593n" "NCSU_Analog_Parts_pcapacitor_spectre"
"\\+591v" "+591"
"\\+591n" "NCSU_Analog_Parts_pcapacitor_spectre"
"\\+590v" "+590"
"\\+590n" "NCSU_Analog_Parts_pcapacitor_spectre"
"\\+589v" "+589"
"\\+589n" "NCSU_Analog_Parts_pcapacitor_spectre"
"\\+588v" "+588"
"\\+588n" "NCSU_Analog_Parts_pcapacitor_spectre"
"\\+584v" "+584"
"\\+584n" "NCSU_Analog_Parts_pcapacitor_spectre"
"\\+581v" "+581"
"\\+581n" "NCSU_Analog_Parts_pcapacitor_spectre"
"\\+578v" "+578"
"\\+578n" "NCSU_Analog_Parts_pcapacitor_spectre"
"\\+575v" "+575"
"\\+575n" "NCSU_Analog_Parts_pcapacitor_spectre"
"\\+572v" "+572"
"\\+572n" "NCSU_Analog_Parts_pcapacitor_spectre"
"\\+569v" "+569"
"\\+569n" "NCSU_Analog_Parts_pcapacitor_spectre"
"\\+554v" "+554"
"\\+554n" "NCSU_Analog_Parts_pcapacitor_spectre"
"\\+551v" "+551"
"\\+551n" "NCSU_Analog_Parts_pcapacitor_spectre"
"\\+550v" "+550"
"\\+550n" "NCSU_Analog_Parts_pcapacitor_spectre"
"\\+549v" "+549"
"\\+549n" "NCSU_Analog_Parts_pcapacitor_spectre"
"\\+548v" "+548"
"\\+548n" "NCSU_Analog_Parts_pcapacitor_spectre"
"\\+546v" "+546"
"\\+546n" "NCSU_Analog_Parts_pcapacitor_spectre"
"\\+544v" "+544"
"\\+544n" "NCSU_Analog_Parts_pcapacitor_spectre"
"\\+541v" "+541"
"\\+541n" "NCSU_Analog_Parts_pcapacitor_spectre"
"\\+539v" "+539"
"\\+539n" "NCSU_Analog_Parts_pcapacitor_spectre"
"\\+536v" "+536"
"\\+536n" "NCSU_Analog_Parts_pcapacitor_spectre"
"\\+535v" "+535"
"\\+535n" "NCSU_Analog_Parts_pcapacitor_spectre"
"\\+534v" "+534"
"\\+534n" "NCSU_Analog_Parts_pcapacitor_spectre"
"\\+533v" "+533"
"\\+533n" "NCSU_Analog_Parts_pcapacitor_spectre"
"\\+532v" "+532"
"\\+532n" "NCSU_Analog_Parts_pcapacitor_spectre"
"\\+530v" "+530"
"\\+530n" "NCSU_Analog_Parts_pcapacitor_spectre"
"\\+529v" "+529"
"\\+529n" "NCSU_Analog_Parts_pcapacitor_spectre"
"\\+525v" "+525"
"\\+525n" "NCSU_Analog_Parts_pcapacitor_spectre"
"\\+522v" "+522"
"\\+522n" "NCSU_Analog_Parts_pcapacitor_spectre"
"\\+521v" "+521"
"\\+521n" "NCSU_Analog_Parts_pcapacitor_spectre"
"\\+519v" "+519"
"\\+519n" "NCSU_Analog_Parts_pcapacitor_spectre"
"\\+517v" "+517"
"\\+517n" "NCSU_Analog_Parts_pcapacitor_spectre"
"\\+516v" "+516"
"\\+516n" "NCSU_Analog_Parts_pcapacitor_spectre"
"\\+514v" "+514"
"\\+514n" "NCSU_Analog_Parts_pcapacitor_spectre"
"\\+513v" "+513"
"\\+513n" "NCSU_Analog_Parts_pcapacitor_spectre"
"\\+511v" "+511"
"\\+511n" "NCSU_Analog_Parts_pcapacitor_spectre"
"\\+509v" "+509"
"\\+509n" "NCSU_Analog_Parts_pcapacitor_spectre"
"\\+508v" "+508"
"\\+508n" "NCSU_Analog_Parts_pcapacitor_spectre"
"\\+505v" "+505"
"\\+505n" "NCSU_Analog_Parts_pcapacitor_spectre"
"\\+502v" "+502"
"\\+502n" "NCSU_Analog_Parts_pcapacitor_spectre"
"\\+499v" "+499"
"\\+499n" "NCSU_Analog_Parts_pcapacitor_spectre"
"\\+498v" "+498"
"\\+498n" "NCSU_Analog_Parts_pcapacitor_spectre"
"\\+497v" "+497"
"\\+497n" "NCSU_Analog_Parts_pcapacitor_spectre"
"\\+496v" "+496"
"\\+496n" "NCSU_Analog_Parts_pcapacitor_spectre"
"\\+494v" "+494"
"\\+494n" "NCSU_Analog_Parts_pcapacitor_spectre"
"\\+493v" "+493"
"\\+493n" "NCSU_Analog_Parts_pcapacitor_spectre"
"\\+491v" "+491"
"\\+491n" "NCSU_Analog_Parts_pcapacitor_spectre"
"\\+490v" "+490"
"\\+490n" "NCSU_Analog_Parts_pcapacitor_spectre"
"\\+488v" "+488"
"\\+488n" "NCSU_Analog_Parts_pcapacitor_spectre"
"\\+487v" "+487"
"\\+487n" "NCSU_Analog_Parts_pcapacitor_spectre"
"\\+481v" "+481"
"\\+481n" "NCSU_Analog_Parts_pcapacitor_spectre"
"\\+478v" "+478"
"\\+478n" "NCSU_Analog_Parts_pcapacitor_spectre"
"\\+477v" "+477"
"\\+477n" "NCSU_Analog_Parts_pcapacitor_spectre"
"\\+474v" "+474"
"\\+474n" "NCSU_Analog_Parts_pcapacitor_spectre"
"\\+473v" "+473"
"\\+473n" "NCSU_Analog_Parts_pcapacitor_spectre"
"\\+462v" "+462"
"\\+462n" "NCSU_Analog_Parts_pcapacitor_spectre"
"\\+459v" "+459"
"\\+459n" "NCSU_Analog_Parts_pcapacitor_spectre"
"\\+456v" "+456"
"\\+456n" "NCSU_Analog_Parts_pcapacitor_spectre"
"\\+455v" "+455"
"\\+455n" "NCSU_Analog_Parts_pcapacitor_spectre"
"\\+452v" "+452"
"\\+452n" "NCSU_Analog_Parts_pcapacitor_spectre"
"\\+451v" "+451"
"\\+451n" "NCSU_Analog_Parts_pcapacitor_spectre"
"\\+450v" "+450"
"\\+450n" "NCSU_Analog_Parts_pcapacitor_spectre"
"\\+449v" "+449"
"\\+449n" "NCSU_Analog_Parts_pcapacitor_spectre"
"\\+448v" "+448"
"\\+448n" "NCSU_Analog_Parts_pcapacitor_spectre"
"\\+446v" "+446"
"\\+446n" "NCSU_Analog_Parts_pcapacitor_spectre"
"\\+445v" "+445"
"\\+445n" "NCSU_Analog_Parts_pcapacitor_spectre"
"\\+443v" "+443"
"\\+443n" "NCSU_Analog_Parts_pcapacitor_spectre"
"\\+441v" "+441"
"\\+441n" "NCSU_Analog_Parts_pcapacitor_spectre"
"\\+439v" "+439"
"\\+439n" "NCSU_Analog_Parts_pcapacitor_spectre"
"\\+437v" "+437"
"\\+437n" "NCSU_Analog_Parts_pcapacitor_spectre"
"\\+436v" "+436"
"\\+436n" "NCSU_Analog_Parts_pcapacitor_spectre"
"\\+435v" "+435"
"\\+435n" "NCSU_Analog_Parts_pcapacitor_spectre"
"\\+428v" "+428"
"\\+428n" "NCSU_Analog_Parts_pcapacitor_spectre"
"\\+1912v" "+1912"
"\\+1912n" "NCSU_Analog_Parts_pcapacitor_spectre"
"\\+1911v" "+1911"
"\\+1911n" "NCSU_Analog_Parts_pcapacitor_spectre"
"\\+1910v" "+1910"
"\\+1910n" "NCSU_Analog_Parts_pcapacitor_spectre"
"\\+1908v" "+1908"
"\\+1908n" "NCSU_Analog_Parts_pcapacitor_spectre"
"\\+1906v" "+1906"
"\\+1906n" "NCSU_Analog_Parts_pcapacitor_spectre"
"\\+1903v" "+1903"
"\\+1903n" "NCSU_Analog_Parts_pcapacitor_spectre"
"\\+1899v" "+1899"
"\\+1899n" "NCSU_Analog_Parts_pcapacitor_spectre"
"\\+1896v" "+1896"
"\\+1896n" "NCSU_Analog_Parts_pcapacitor_spectre"
"\\+1891v" "+1891"
"\\+1891n" "NCSU_Analog_Parts_pcapacitor_spectre"
"\\+1886v" "+1886"
"\\+1886n" "NCSU_Analog_Parts_pcapacitor_spectre"
"\\+1884v" "+1884"
"\\+1884n" "NCSU_Analog_Parts_pcapacitor_spectre"
"\\+1882v" "+1882"
"\\+1882n" "NCSU_Analog_Parts_pcapacitor_spectre"
"\\+1879v" "+1879"
"\\+1879n" "NCSU_Analog_Parts_pcapacitor_spectre"
"\\+1876v" "+1876"
"\\+1876n" "NCSU_Analog_Parts_pcapacitor_spectre"
"\\+1874v" "+1874"
"\\+1874n" "NCSU_Analog_Parts_pcapacitor_spectre"
"\\+1758v" "+1758"
"\\+1758n" "NCSU_Analog_Parts_pcapacitor_spectre"
"\\+1701v" "+1701"
"\\+1701n" "NCSU_Analog_Parts_pcapacitor_spectre"
"\\+1698v" "+1698"
"\\+1698n" "NCSU_Analog_Parts_pcapacitor_spectre"
"\\+1695v" "+1695"
"\\+1695n" "NCSU_Analog_Parts_pcapacitor_spectre"
"\\+1694v" "+1694"
"\\+1694n" "NCSU_Analog_Parts_pcapacitor_spectre"
"\\+1688v" "+1688"
"\\+1688n" "NCSU_Analog_Parts_pcapacitor_spectre"
"\\+1686v" "+1686"
"\\+1686n" "NCSU_Analog_Parts_pcapacitor_spectre"
"\\+1685v" "+1685"
"\\+1685n" "NCSU_Analog_Parts_pcapacitor_spectre"
"\\+1682v" "+1682"
"\\+1682n" "NCSU_Analog_Parts_pcapacitor_spectre"
"\\+1681v" "+1681"
"\\+1681n" "NCSU_Analog_Parts_pcapacitor_spectre"
"\\+1675v" "+1675"
"\\+1675n" "NCSU_Analog_Parts_pcapacitor_spectre"
"\\+1673v" "+1673"
"\\+1673n" "NCSU_Analog_Parts_pcapacitor_spectre"
"\\+1672v" "+1672"
"\\+1672n" "NCSU_Analog_Parts_pcapacitor_spectre"
"\\+1669v" "+1669"
"\\+1669n" "NCSU_Analog_Parts_pcapacitor_spectre"
"\\+1668v" "+1668"
"\\+1668n" "NCSU_Analog_Parts_pcapacitor_spectre"
"\\+1661v" "+1661"
"\\+1661n" "NCSU_Analog_Parts_pcapacitor_spectre"
"\\+1659v" "+1659"
"\\+1659n" "NCSU_Analog_Parts_pcapacitor_spectre"
"\\+1658v" "+1658"
"\\+1658n" "NCSU_Analog_Parts_pcapacitor_spectre"
"\\+1655v" "+1655"
"\\+1655n" "NCSU_Analog_Parts_pcapacitor_spectre"
"\\+1654v" "+1654"
"\\+1654n" "NCSU_Analog_Parts_pcapacitor_spectre"
"\\+1585v" "+1585"
"\\+1585n" "NCSU_Analog_Parts_pcapacitor_spectre"
"\\+1583v" "+1583"
"\\+1583n" "NCSU_Analog_Parts_pcapacitor_spectre"
"\\+1582v" "+1582"
"\\+1582n" "NCSU_Analog_Parts_pcapacitor_spectre"
"\\+1579v" "+1579"
"\\+1579n" "NCSU_Analog_Parts_pcapacitor_spectre"
"\\+1573v" "+1573"
"\\+1573n" "NCSU_Analog_Parts_pcapacitor_spectre"
"\\+1570v" "+1570"
"\\+1570n" "NCSU_Analog_Parts_pcapacitor_spectre"
"\\+1568v" "+1568"
"\\+1568n" "NCSU_Analog_Parts_pcapacitor_spectre"
"\\+1567v" "+1567"
"\\+1567n" "NCSU_Analog_Parts_pcapacitor_spectre"
"\\+1565v" "+1565"
"\\+1565n" "NCSU_Analog_Parts_pcapacitor_spectre"
"\\+1561v" "+1561"
"\\+1561n" "NCSU_Analog_Parts_pcapacitor_spectre"
"\\+1555v" "+1555"
"\\+1555n" "NCSU_Analog_Parts_pcapacitor_spectre"
"\\+1553v" "+1553"
"\\+1553n" "NCSU_Analog_Parts_pcapacitor_spectre"
"\\+1552v" "+1552"
"\\+1552n" "NCSU_Analog_Parts_pcapacitor_spectre"
"\\+1550v" "+1550"
"\\+1550n" "NCSU_Analog_Parts_pcapacitor_spectre"
"\\+1543v" "+1543"
"\\+1543n" "NCSU_Analog_Parts_pcapacitor_spectre"
"\\+1539v" "+1539"
"\\+1539n" "NCSU_Analog_Parts_pcapacitor_spectre"
"\\+1537v" "+1537"
"\\+1537n" "NCSU_Analog_Parts_pcapacitor_spectre"
"\\+1536v" "+1536"
"\\+1536n" "NCSU_Analog_Parts_pcapacitor_spectre"
"\\+1533v" "+1533"
"\\+1533n" "NCSU_Analog_Parts_pcapacitor_spectre"
"\\+1530v" "+1530"
"\\+1530n" "NCSU_Analog_Parts_pcapacitor_spectre"
"\\+1513v" "+1513"
"\\+1513n" "NCSU_Analog_Parts_pcapacitor_spectre"
"\\+1511v" "+1511"
"\\+1511n" "NCSU_Analog_Parts_pcapacitor_spectre"
"\\+1507v" "+1507"
"\\+1507n" "NCSU_Analog_Parts_pcapacitor_spectre"
"\\+1488v" "+1488"
"\\+1488n" "NCSU_Analog_Parts_pcapacitor_spectre"
"\\+1485v" "+1485"
"\\+1485n" "NCSU_Analog_Parts_pcapacitor_spectre"
"\\+1483v" "+1483"
"\\+1483n" "NCSU_Analog_Parts_pcapacitor_spectre"
"\\+1480v" "+1480"
"\\+1480n" "NCSU_Analog_Parts_pcapacitor_spectre"
"\\+1478v" "+1478"
"\\+1478n" "NCSU_Analog_Parts_pcapacitor_spectre"
"\\+1475v" "+1475"
"\\+1475n" "NCSU_Analog_Parts_pcapacitor_spectre"
"\\+1472v" "+1472"
"\\+1472n" "NCSU_Analog_Parts_pcapacitor_spectre"
"\\+1469v" "+1469"
"\\+1469n" "NCSU_Analog_Parts_pcapacitor_spectre"
"\\+1456v" "+1456"
"\\+1456n" "NCSU_Analog_Parts_pcapacitor_spectre"
"\\+1455v" "+1455"
"\\+1455n" "NCSU_Analog_Parts_pcapacitor_spectre"
"\\+1454v" "+1454"
"\\+1454n" "NCSU_Analog_Parts_pcapacitor_spectre"
"\\+1453v" "+1453"
"\\+1453n" "NCSU_Analog_Parts_pcapacitor_spectre"
"\\+1312v" "+1312"
"\\+1312n" "NCSU_Analog_Parts_pcapacitor_spectre"
"\\+1250v" "+1250"
"\\+1250n" "NCSU_Analog_Parts_pcapacitor_spectre"
"\\+1247v" "+1247"
"\\+1247n" "NCSU_Analog_Parts_pcapacitor_spectre"
"\\+1245v" "+1245"
"\\+1245n" "NCSU_Analog_Parts_pcapacitor_spectre"
"\\+1240v" "+1240"
"\\+1240n" "NCSU_Analog_Parts_pcapacitor_spectre"
"\\+1237v" "+1237"
"\\+1237n" "NCSU_Analog_Parts_pcapacitor_spectre"
"\\+1235v" "+1235"
"\\+1235n" "NCSU_Analog_Parts_pcapacitor_spectre"
"\\+1021v" "+1021"
"\\+1021n" "NCSU_Analog_Parts_pcapacitor_spectre"
"\\+1020v" "+1020"
"\\+1020n" "NCSU_Analog_Parts_pcapacitor_spectre"
"\\+1019v" "+1019"
"\\+1019n" "NCSU_Analog_Parts_pcapacitor_spectre"
"\\+982v" "+982"
"\\+982n" "NCSU_Analog_Parts_pcapacitor_spectre"
"\\+981v" "+981"
"\\+981n" "NCSU_Analog_Parts_pcapacitor_spectre"
"\\+980v" "+980"
"\\+980n" "NCSU_Analog_Parts_pcapacitor_spectre"
"\\+979v" "+979"
"\\+979n" "NCSU_Analog_Parts_pcapacitor_spectre"
"\\+978v" "+978"
"\\+978n" "NCSU_Analog_Parts_pcapacitor_spectre"
"\\+977v" "+977"
"\\+977n" "NCSU_Analog_Parts_pcapacitor_spectre"
"\\+976v" "+976"
"\\+976n" "NCSU_Analog_Parts_pcapacitor_spectre"
"\\+975v" "+975"
"\\+975n" "NCSU_Analog_Parts_pcapacitor_spectre"
"\\+974v" "+974"
"\\+974n" "NCSU_Analog_Parts_pcapacitor_spectre"
"\\+973v" "+973"
"\\+973n" "NCSU_Analog_Parts_pcapacitor_spectre"
"\\+971v" "+971"
"\\+971n" "NCSU_Analog_Parts_pcapacitor_spectre"
"\\+970v" "+970"
"\\+970n" "NCSU_Analog_Parts_pcapacitor_spectre"
"\\+969v" "+969"
"\\+969n" "NCSU_Analog_Parts_pcapacitor_spectre"
"\\+968v" "+968"
"\\+968n" "NCSU_Analog_Parts_pcapacitor_spectre"
"\\+967v" "+967"
"\\+967n" "NCSU_Analog_Parts_pcapacitor_spectre"
"\\+966v" "+966"
"\\+966n" "NCSU_Analog_Parts_pcapacitor_spectre"
"\\+965v" "+965"
"\\+965n" "NCSU_Analog_Parts_pcapacitor_spectre"
"\\+964v" "+964"
"\\+964n" "NCSU_Analog_Parts_pcapacitor_spectre"