HEADER
"PSFversion" "1.00"
"RESETv" "RESET"
"D0v" "D0"
"D1v" "D1"
"D2v" "D2"
"D3v" "D3"
"D4v" "D4"
"D5v" "D5"
"D6v" "D6"
"D7v" "D7"
"X0v" "X0"
"X1v" "X1"
"X2v" "X2"
"X3v" "X3"
"X4v" "X4"
"X5v" "X5"
"X6v" "X6"
"CLKv" "CLK"
"X7v" "X7"
"S0v" "S0"
"S1v" "S1"
"S2v" "S2"
"_23v" "23"
"_24v" "24"
"_25v" "25"
"_26v" "26"
"_27v" "27"
"_28v" "28"
"_29v" "29"
"_30v" "30"
"_31v" "31"
"_32v" "32"
"_33v" "33"
"_34v" "34"
"_35v" "35"
"_36v" "36"
"_37v" "37"
"_38v" "38"
"_39v" "39"
"_40v" "40"
"_41v" "41"
"_42v" "42"
"_43v" "43"
"_44v" "44"
"_45v" "45"
"_46v" "46"
"_47v" "47"
"_48v" "48"
"_49v" "49"
"_50v" "50"
"_51v" "51"
"_52v" "52"
"_53v" "53"
"_54v" "54"
"_55v" "55"
"_56v" "56"
"_57v" "57"
"_58v" "58"
"_59v" "59"
"_60v" "60"
"_61v" "61"
"_62v" "62"
"_63v" "63"
"_64v" "64"
"_65v" "65"
"_66v" "66"
"_67v" "67"
"_68v" "68"
"_69v" "69"
"_70v" "70"
"_71v" "71"
"_72v" "72"
"_73v" "73"
"_74v" "74"
"_75v" "75"
"_76v" "76"
"_77v" "77"
"_78v" "78"
"_79v" "79"
"_80v" "80"
"_81v" "81"
"_82v" "82"
"_83v" "83"
"_84v" "84"
"_85v" "85"
"_86v" "86"
"_87v" "87"
"_88v" "88"
"_89v" "89"
"_90v" "90"
"_91v" "91"
"_92v" "92"
"_93v" "93"
"_94v" "94"
"_95v" "95"
"_96v" "96"
"_97v" "97"
"_98v" "98"
"_99v" "99"
"_100v" "100"
"_101v" "101"
"_102v" "102"
"_103v" "103"
"_104v" "104"
"_105v" "105"
"_106v" "106"
"_107v" "107"
"_108v" "108"
"_109v" "109"
"_110v" "110"
"_111v" "111"
"_112v" "112"
"_113v" "113"
"_114v" "114"
"_115v" "115"
"_116v" "116"
"_117v" "117"
"_118v" "118"
"_119v" "119"
"_120v" "120"
"_121v" "121"
"_122v" "122"
"_123v" "123"
"_124v" "124"
"_125v" "125"
"_126v" "126"
"_127v" "127"
"_128v" "128"
"_129v" "129"
"_130v" "130"
"_131v" "131"
"_132v" "132"
"_133v" "133"
"_134v" "134"
"_135v" "135"
"_136v" "136"
"_137v" "137"
"_138v" "138"
"_139v" "139"
"_140v" "140"
"_141v" "141"
"_142v" "142"
"_143v" "143"
"_144v" "144"
"_145v" "145"
"_146v" "146"
"_147v" "147"
"_148v" "148"
"_149v" "149"
"_150v" "150"
"_151v" "151"
"_152v" "152"
"_153v" "153"
"_154v" "154"
"_155v" "155"
"_156v" "156"
"_157v" "157"
"_158v" "158"
"_159v" "159"
"_160v" "160"
"_161v" "161"
"_162v" "162"
"_163v" "163"
"_164v" "164"
"_165v" "165"
"_166v" "166"
"_167v" "167"
"_168v" "168"
"_169v" "169"
"_170v" "170"
"_171v" "171"
"_172v" "172"
"_173v" "173"
"_174v" "174"
"_175v" "175"
"_176v" "176"
"_177v" "177"
"_178v" "178"
"_179v" "179"
"_180v" "180"
"_181v" "181"
"_182v" "182"
"_183v" "183"
"_184v" "184"
"_185v" "185"
"_186v" "186"
"_187v" "187"
"_188v" "188"
"_189v" "189"
"_190v" "190"
"_191v" "191"
"_192v" "192"
"_193v" "193"
"_194v" "194"
"_195v" "195"
"_196v" "196"
"_197v" "197"
"_198v" "198"
"_199v" "199"
"_200v" "200"
"_201v" "201"
"_202v" "202"
"_203v" "203"
"_204v" "204"
"_205v" "205"
"_206v" "206"
"_207v" "207"
"_208v" "208"
"_209v" "209"
"_210v" "210"
"_211v" "211"
"_212v" "212"
"_213v" "213"
"_214v" "214"
"_215v" "215"
"_216v" "216"
"_217v" "217"
"_218v" "218"
"_219v" "219"
