HEADER
"PSFversion" "1.00"
"PLUSv" ":1"
"MINUSv" "(FUNCTION minus(root(\"PLUS\")))"
