HEADER
"PSFversion" "1.00"
":1v" "PLUS"
"(FUNCTION minus(root(\"PLUS\")))v" "MINUS"
